version 3
run General-0-20230316-07:20:33-10161
attr configname General
attr datetime 20230316-07:20:33
attr datetimef 20230316-072033
attr experiment General
attr inifile tCPNet.ini
attr iterationvars ""
attr iterationvarsd ""
attr iterationvarsf ""
attr measurement ""
attr network TCPNet
attr processid 10161
attr repetition 0
attr replication #0
attr resultdir results
attr runnumber 0
attr seedset 0
config network TCPNet

vector 0 TCPNet.server[0] "" ETV
0	5	0.032634	0.000634
0	10	0.064634	0.000634
0	15	0.096634	0.000634
0	20	0.128634	0.000634
0	25	0.160634	0.000634
0	30	0.192634	0.000634
0	35	0.224634	0.000634
0	40	0.256634	0.000634
0	45	0.288634	0.000634
0	50	0.320634	0.000634
0	55	0.352634	0.000634
0	60	0.384634	0.000634
0	65	0.416634	0.000634
0	70	0.448634	0.000634
0	75	0.480634	0.000634
0	92	0.500884	0.000634
0	98	0.501204	0.000704
0	105	0.501524	0.000774
0	112	0.501844	0.000844
0	118	0.502164	0.000914
0	124	0.502484	0.000984
0	132	0.502804	0.001054
0	138	0.503124	0.001124
0	144	0.503444	0.001194
0	151	0.503764	0.001264
0	158	0.504084	0.001334
0	164	0.504404	0.001404
0	170	0.504724	0.001474
0	178	0.505044	0.001544
0	184	0.505364	0.001614
0	190	0.505684	0.001684
0	197	0.506004	0.001754
0	204	0.506324	0.001824
0	210	0.506644	0.001894
0	216	0.506964	0.001964
0	224	0.507284	0.002034
0	230	0.507604	0.002104
0	236	0.507924	0.002174
0	242	0.508244	0.002244
0	250	0.508564	0.002314
0	256	0.508884	0.002384
0	262	0.509204	0.002454
0	269	0.509524	0.002524
0	276	0.509844	0.002594
0	282	0.510164	0.002664
0	288	0.510484	0.002734
0	296	0.510804	0.002804
0	302	0.511124	0.002874
0	308	0.511444	0.002944
0	315	0.511764	0.003014
0	322	0.512084	0.003084
0	328	0.512404	0.003154
0	334	0.512724	0.003224
0	342	0.513044	0.003294
0	348	0.513364	0.003364
0	354	0.513684	0.003434
0	361	0.514004	0.003504
0	368	0.514324	0.003574
0	374	0.514644	0.003644
0	380	0.514964	0.003714
0	388	0.515284	0.003784
0	394	0.515604	0.003854
0	400	0.515924	0.003924
0	406	0.516244	0.003994
0	414	0.516564	0.004064
0	420	0.516884	0.004134
0	426	0.517204	0.004204
0	433	0.517524	0.004274
0	440	0.517844	0.004344
0	446	0.518164	0.004414
0	452	0.518484	0.004484
0	460	0.518804	0.004554
0	466	0.519124	0.004624
0	472	0.519444	0.004694
0	479	0.519764	0.004764
0	486	0.520084	0.004834
0	492	0.520404	0.004904
0	498	0.520724	0.004974
0	506	0.521044	0.005044
0	512	0.521364	0.005114
0	518	0.521684	0.005184
0	525	0.522004	0.005254
0	532	0.522324	0.005324
0	538	0.522644	0.005394
0	544	0.522964	0.005464
0	552	0.523284	0.005534
0	558	0.523604	0.005604
0	564	0.523924	0.005674
0	570	0.524244	0.005744
0	578	0.524564	0.005814
0	584	0.524884	0.005884
0	590	0.525204	0.005954
0	597	0.525524	0.006024
0	604	0.525844	0.006094
0	610	0.526164	0.006164
0	616	0.526484	0.006234
0	624	0.526804	0.006304
0	630	0.527124	0.006374
0	636	0.527444	0.006444
0	643	0.527764	0.006514
0	650	0.528084	0.006584
0	656	0.528404	0.006654
0	662	0.528724	0.006724
0	670	0.529044	0.006794
0	676	0.529364	0.006864
0	682	0.529684	0.006934
0	689	0.530004	0.007004
0	696	0.530324	0.007074
0	702	0.530644	0.007144
0	708	0.530964	0.007214
0	716	0.531284	0.007284
0	722	0.531604	0.007354
0	728	0.531924	0.007424
0	734	0.532244	0.007494
0	742	0.532564	0.007564
0	748	0.532884	0.007634
0	754	0.533204	0.007704
0	761	0.533524	0.007774
0	768	0.533844	0.007844
0	774	0.534164	0.007914
0	780	0.534484	0.007984
0	788	0.534804	0.008054
0	794	0.535124	0.008124
0	800	0.535444	0.008194
0	807	0.535764	0.008264
0	814	0.536084	0.008334
0	820	0.536404	0.008404
0	826	0.536724	0.008474
0	834	0.537044	0.008544
0	840	0.537364	0.008614
0	846	0.537684	0.008684
0	853	0.538004	0.008754
0	860	0.538324	0.008824
0	866	0.538644	0.008894
0	872	0.538964	0.008964
0	880	0.539284	0.009034
0	886	0.539604	0.009104
0	892	0.539924	0.009174
0	898	0.540244	0.009244
0	906	0.540564	0.009314
0	912	0.540884	0.009384
0	918	0.541204	0.009454
0	925	0.541524	0.009524
0	932	0.541844	0.009594
0	938	0.542164	0.009664
0	944	0.542484	0.009734
0	952	0.542804	0.009804
0	958	0.543124	0.009874
0	964	0.543444	0.009944
0	971	0.543764	0.010014
0	978	0.544084	0.010084
0	984	0.544404	0.010154
0	990	0.544724	0.010224
0	998	0.545044	0.010294
0	1004	0.545364	0.010364
0	1010	0.545684	0.010434
0	1017	0.546004	0.010504
0	1024	0.546324	0.010574
0	1030	0.546644	0.010644
0	1036	0.546964	0.010714
0	1044	0.547284	0.010784
0	1050	0.547604	0.010854
0	1056	0.547924	0.010924
0	1062	0.548244	0.010994
0	1070	0.548564	0.011064
0	1076	0.548884	0.011134
0	1082	0.549204	0.011204
0	1089	0.549524	0.011274
0	1096	0.549844	0.011344
0	1102	0.550164	0.011414
0	1108	0.550484	0.011484
0	1116	0.550804	0.011554
0	1122	0.551124	0.011624
0	1128	0.551444	0.011694
0	1135	0.551764	0.011764
0	1142	0.552084	0.011834
0	1148	0.552404	0.011904
0	1154	0.552724	0.011974
0	1162	0.553044	0.012044
0	1168	0.553364	0.012114
0	1174	0.553684	0.012184
0	1181	0.554004	0.012254
0	1188	0.554324	0.012324
0	1194	0.554644	0.012394
0	1200	0.554964	0.012464
0	1208	0.555284	0.012534
0	1214	0.555604	0.012604
0	1220	0.555924	0.012674
0	1226	0.556244	0.012744
0	1234	0.556564	0.012814
0	1240	0.556884	0.012884
0	1246	0.557204	0.012954
0	1253	0.557524	0.013024
0	1260	0.557844	0.013094
0	1266	0.558164	0.013164
0	1272	0.558484	0.013234
0	1280	0.558804	0.013304
0	1286	0.559124	0.013374
0	1292	0.559444	0.013444
0	1299	0.559764	0.013514
0	1306	0.560084	0.013584
0	1312	0.560404	0.013654
0	1318	0.560724	0.013724
0	1326	0.561044	0.013794
0	1332	0.561364	0.013864
0	1338	0.561684	0.013934
0	1345	0.562004	0.014004
0	1352	0.562324	0.014074
0	1358	0.562644	0.014144
0	1364	0.562964	0.014214
0	1372	0.563284	0.014284
0	1378	0.563604	0.014354
0	1384	0.563924	0.014424
0	1390	0.564244	0.014494
0	1398	0.564564	0.014564
0	1404	0.564884	0.014634
0	1410	0.565204	0.014704
0	1417	0.565524	0.014774
0	1424	0.565844	0.014844
0	1430	0.566164	0.014914
0	1436	0.566484	0.014984
0	1444	0.566804	0.015054
0	1450	0.567124	0.015124
0	1456	0.567444	0.015194
0	1463	0.567764	0.015264
0	1470	0.568084	0.015334
0	1476	0.568404	0.015404
0	1482	0.568724	0.015474
0	1490	0.569044	0.015544
0	1496	0.569364	0.015614
0	1502	0.569684	0.015684
0	1509	0.570004	0.015754
0	1516	0.570324	0.015824
0	1522	0.570644	0.015894
0	1528	0.570964	0.015964
0	1536	0.571284	0.016034
0	1542	0.571604	0.016104
0	1548	0.571924	0.016174
0	1554	0.572244	0.016244
0	1562	0.572564	0.016314
0	1568	0.572884	0.016384
0	1574	0.573204	0.016454
0	1581	0.573524	0.016524
0	1588	0.573844	0.016594
0	1594	0.574164	0.016664
0	1600	0.574484	0.016734
0	1608	0.574804	0.016804
0	1614	0.575124	0.016874
0	1620	0.575444	0.016944
0	1627	0.575764	0.017014
0	1634	0.576084	0.017084
0	1640	0.576404	0.017154
0	1646	0.576724	0.017224
0	1654	0.577044	0.017294
0	1660	0.577364	0.017364
0	1666	0.577684	0.017434
0	1673	0.578004	0.017504
0	1680	0.578324	0.017574
0	1686	0.578644	0.017644
0	1692	0.578964	0.017714
0	1700	0.579284	0.017784
0	1706	0.579604	0.017854
0	1712	0.579924	0.017924
0	1718	0.580244	0.017994
0	1726	0.580564	0.018064
0	1732	0.580884	0.018134
0	1738	0.581204	0.018204
0	1745	0.581524	0.018274
0	1752	0.581844	0.018344
0	1758	0.582164	0.018414
0	1764	0.582484	0.018484
0	1772	0.582804	0.018554
0	1778	0.583124	0.018624
0	1784	0.583444	0.018694
0	1791	0.583764	0.018764
0	1798	0.584084	0.018834
0	1804	0.584404	0.018904
0	1810	0.584724	0.018974
0	1818	0.585044	0.019044
0	1824	0.585364	0.019114
0	1830	0.585684	0.019184
0	1837	0.586004	0.019254
0	1844	0.586324	0.019324
0	1850	0.586644	0.019394
0	1856	0.586964	0.019464
0	1864	0.587284	0.019534
0	1870	0.587604	0.019604
0	1876	0.587924	0.019674
0	1882	0.588244	0.019744
0	1890	0.588564	0.019814
0	1896	0.588884	0.019884
0	1902	0.589204	0.019954
0	1909	0.589524	0.020024
0	1916	0.589844	0.020094
0	1922	0.590164	0.020164
0	1928	0.590484	0.020234
0	1936	0.590804	0.020304
0	1942	0.591124	0.020374
0	1948	0.591444	0.020444
0	1955	0.591764	0.020514
0	1962	0.592084	0.020584
0	1968	0.592404	0.020654
0	1974	0.592724	0.020724
0	1982	0.593044	0.020794
0	1988	0.593364	0.020864
0	1994	0.593684	0.020934
0	2001	0.594004	0.021004
0	2008	0.594324	0.021074
0	2014	0.594644	0.021144
0	2020	0.594964	0.021214
0	2028	0.595284	0.021284
0	2034	0.595604	0.021354
0	2040	0.595924	0.021424
0	2046	0.596244	0.021494
0	2054	0.596564	0.021564
0	2060	0.596884	0.021634
0	2066	0.597204	0.021704
0	2073	0.597524	0.021774
0	2080	0.597844	0.021844
0	2086	0.598164	0.021914
0	2092	0.598484	0.021984
0	2100	0.598804	0.022054
0	2106	0.599124	0.022124
0	2112	0.599444	0.022194
0	2119	0.599764	0.022264
0	2126	0.600084	0.022334
0	2132	0.600404	0.022404
0	2138	0.600724	0.022474
0	2146	0.601044	0.022544
0	2152	0.601364	0.022614
0	2158	0.601684	0.022684
0	2165	0.602004	0.022754
0	2172	0.602324	0.022824
0	2178	0.602644	0.022894
0	2184	0.602964	0.022964
0	2192	0.603284	0.023034
0	2198	0.603604	0.023104
0	2204	0.603924	0.023174
0	2210	0.604244	0.023244
0	2218	0.604564	0.023314
0	2224	0.604884	0.023384
0	2230	0.605204	0.023454
0	2237	0.605524	0.023524
0	2244	0.605844	0.023594
0	2250	0.606164	0.023664
0	2256	0.606484	0.023734
0	2264	0.606804	0.023804
0	2270	0.607124	0.023874
0	2276	0.607444	0.023944
0	2283	0.607764	0.024014
0	2290	0.608084	0.024084
0	2296	0.608404	0.024154
0	2302	0.608724	0.024224
0	2310	0.609044	0.024294
0	2316	0.609364	0.024364
0	2322	0.609684	0.024434
0	2329	0.610004	0.024504
0	2336	0.610324	0.024574
0	2342	0.610644	0.024644
0	2348	0.610964	0.024714
0	2356	0.611284	0.024784
0	2362	0.611604	0.024854
0	2368	0.611924	0.024924
0	2374	0.612244	0.024994
0	2382	0.612564	0.025064
0	2388	0.612884	0.025134
0	2394	0.613204	0.025204
0	2401	0.613524	0.025274
0	2408	0.613844	0.025344
0	2414	0.614164	0.025414
0	2420	0.614484	0.025484
0	2428	0.614804	0.025554
0	2434	0.615124	0.025624
0	2440	0.615444	0.025694
0	2447	0.615764	0.025764
0	2454	0.616084	0.025834
0	2460	0.616404	0.025904
0	2466	0.616724	0.025974
0	2474	0.617044	0.026044
0	2480	0.617364	0.026114
0	2486	0.617684	0.026184
0	2493	0.618004	0.026254
0	2500	0.618324	0.026324
0	2506	0.618644	0.026394
0	2512	0.618964	0.026464
0	2520	0.619284	0.026534
0	2526	0.619604	0.026604
0	2532	0.619924	0.026674
0	2538	0.620244	0.026744
0	2546	0.620564	0.026814
0	2552	0.620884	0.026884
0	2558	0.621204	0.026954
0	2565	0.621524	0.027024
0	2572	0.621844	0.027094
0	2578	0.622164	0.027164
0	2584	0.622484	0.027234
0	2592	0.622804	0.027304
0	2598	0.623124	0.027374
0	2604	0.623444	0.027444
0	2611	0.623764	0.027514
0	2618	0.624084	0.027584
0	2624	0.624404	0.027654
0	2630	0.624724	0.027724
0	2638	0.625044	0.027794
0	2644	0.625364	0.027864
0	2650	0.625684	0.027934
0	2657	0.626004	0.028004
0	2664	0.626324	0.028074
0	2670	0.626644	0.028144
0	2676	0.626964	0.028214
0	2684	0.627284	0.028284
0	2690	0.627604	0.028354
0	2696	0.627924	0.028424
0	2702	0.628244	0.028494
0	2710	0.628564	0.028564
0	2716	0.628884	0.028634
0	2722	0.629204	0.028704
0	2729	0.629524	0.028774
0	2736	0.629844	0.028844
0	2742	0.630164	0.028914
0	2748	0.630484	0.028984
0	2756	0.630804	0.029054
0	2762	0.631124	0.029124
0	2768	0.631444	0.029194
0	2775	0.631764	0.029264
0	2782	0.632084	0.029334
0	2788	0.632404	0.029404
0	2794	0.632724	0.029474
0	2802	0.633044	0.029544
0	2808	0.633364	0.029614
0	2814	0.633684	0.029684
0	2821	0.634004	0.029754
0	2828	0.634324	0.029824
0	2834	0.634644	0.029894
0	2840	0.634964	0.029964
0	2848	0.635284	0.030034
0	2854	0.635604	0.030104
0	2860	0.635924	0.030174
0	2866	0.636244	0.030244
0	2874	0.636564	0.030314
0	2880	0.636884	0.030384
0	2886	0.637204	0.030454
0	2893	0.637524	0.030524
0	2900	0.637844	0.030594
0	2906	0.638164	0.030664
0	2912	0.638484	0.030734
0	2920	0.638804	0.030804
0	2926	0.639124	0.030874
0	2932	0.639444	0.030944
0	2939	0.639764	0.031014
0	2946	0.640084	0.031084
0	2952	0.640404	0.031154
0	2958	0.640724	0.031224
0	2966	0.641044	0.031294
0	2972	0.641364	0.031364
0	2978	0.641684	0.031434
0	2985	0.642004	0.031504
0	2992	0.642324	0.031574
0	2998	0.642644	0.031644
0	3004	0.642964	0.031714
0	3012	0.643284	0.031784
0	3018	0.643604	0.031854
0	3024	0.643924	0.031924
0	3030	0.644244	0.031994
0	3038	0.644564	0.032064
0	3044	0.644884	0.032134
0	3050	0.645204	0.032204
0	3057	0.645524	0.032274
0	3064	0.645844	0.032344
0	3070	0.646164	0.032414
0	3076	0.646484	0.032484
0	3084	0.646804	0.032554
0	3090	0.647124	0.032624
0	3096	0.647444	0.032694
0	3103	0.647764	0.032764
0	3110	0.648084	0.032834
0	3116	0.648404	0.032904
0	3122	0.648724	0.032974
0	3130	0.649044	0.033044
0	3136	0.649364	0.033114
0	3142	0.649684	0.033184
0	3149	0.650004	0.033254
0	3156	0.650324	0.033324
0	3162	0.650644	0.033394
0	3168	0.650964	0.033464
0	3176	0.651284	0.033534
0	3182	0.651604	0.033604
0	3188	0.651924	0.033674
0	3194	0.652244	0.033744
0	3202	0.652564	0.033814
0	3208	0.652884	0.033884
0	3214	0.653204	0.033954
0	3221	0.653524	0.034024
0	3228	0.653844	0.034094
0	3234	0.654164	0.034164
0	3240	0.654484	0.034234
0	3248	0.654804	0.034304
0	3254	0.655124	0.034374
0	3260	0.655444	0.034444
0	3267	0.655764	0.034514
0	3274	0.656084	0.034584
0	3280	0.656404	0.034654
0	3286	0.656724	0.034724
0	3294	0.657044	0.034794
0	3300	0.657364	0.034864
0	3306	0.657684	0.034934
0	3313	0.658004	0.035004
0	3320	0.658324	0.035074
0	3326	0.658644	0.035144
0	3332	0.658964	0.035214
0	3340	0.659284	0.035284
0	3346	0.659604	0.035354
0	3352	0.659924	0.035424
0	3358	0.660244	0.035494
0	3366	0.660564	0.035564
0	3372	0.660884	0.035634
0	3378	0.661204	0.035704
0	3385	0.661524	0.035774
0	3392	0.661844	0.035844
0	3398	0.662164	0.035914
0	3404	0.662484	0.035984
0	3412	0.662804	0.036054
0	3418	0.663124	0.036124
0	3424	0.663444	0.036194
0	3431	0.663764	0.036264
0	3438	0.664084	0.036334
0	3444	0.664404	0.036404
0	3450	0.664724	0.036474
0	3458	0.665044	0.036544
0	3464	0.665364	0.036614
0	3470	0.665684	0.036684
0	3477	0.666004	0.036754
0	3484	0.666324	0.036824
0	3490	0.666644	0.036894
0	3496	0.666964	0.036964
0	3504	0.667284	0.037034
0	3510	0.667604	0.037104
0	3516	0.667924	0.037174
0	3522	0.668244	0.037244
0	3530	0.668564	0.037314
0	3536	0.668884	0.037384
0	3542	0.669204	0.037454
0	3549	0.669524	0.037524
0	3556	0.669844	0.037594
0	3562	0.670164	0.037664
0	3568	0.670484	0.037734
0	3576	0.670804	0.037804
0	3582	0.671124	0.037874
0	3588	0.671444	0.037944
0	3595	0.671764	0.038014
0	3602	0.672084	0.038084
0	3608	0.672404	0.038154
0	3614	0.672724	0.038224
0	3622	0.673044	0.038294
0	3628	0.673364	0.038364
0	3634	0.673684	0.038434
0	3641	0.674004	0.038504
0	3648	0.674324	0.038574
0	3654	0.674644	0.038644
0	3660	0.674964	0.038714
0	3668	0.675284	0.038784
0	3674	0.675604	0.038854
0	3680	0.675924	0.038924
0	3686	0.676244	0.038994
0	3694	0.676564	0.039064
0	3700	0.676884	0.039134
0	3706	0.677204	0.039204
0	3713	0.677524	0.039274
0	3720	0.677844	0.039344
0	3726	0.678164	0.039414
0	3732	0.678484	0.039484
0	3740	0.678804	0.039554
0	3746	0.679124	0.039624
0	3752	0.679444	0.039694
0	3759	0.679764	0.039764
0	3766	0.680084	0.039834
0	3772	0.680404	0.039904
0	3778	0.680724	0.039974
0	3786	0.681044	0.040044
0	3792	0.681364	0.040114
0	3798	0.681684	0.040184
0	3805	0.682004	0.040254
0	3812	0.682324	0.040324
0	3818	0.682644	0.040394
0	3824	0.682964	0.040464
0	3832	0.683284	0.040534
0	3838	0.683604	0.040604
0	3844	0.683924	0.040674
0	3850	0.684244	0.040744
0	3858	0.684564	0.040814
0	3864	0.684884	0.040884
0	3870	0.685204	0.040954
0	3877	0.685524	0.041024
0	3884	0.685844	0.041094
0	3890	0.686164	0.041164
0	3896	0.686484	0.041234
0	3904	0.686804	0.041304
0	3910	0.687124	0.041374
0	3916	0.687444	0.041444
0	3923	0.687764	0.041514
0	3930	0.688084	0.041584
0	3936	0.688404	0.041654
0	3942	0.688724	0.041724
0	3950	0.689044	0.041794
0	3956	0.689364	0.041864
0	3962	0.689684	0.041934
0	3969	0.690004	0.042004
0	3976	0.690324	0.042074
0	3982	0.690644	0.042144
0	3988	0.690964	0.042214
0	3996	0.691284	0.042284
0	4002	0.691604	0.042354
0	4008	0.691924	0.042424
0	4014	0.692244	0.042494
0	4022	0.692564	0.042564
0	4028	0.692884	0.042634
0	4034	0.693204	0.042704
0	4041	0.693524	0.042774
0	4048	0.693844	0.042844
0	4054	0.694164	0.042914
0	4060	0.694484	0.042984
0	4068	0.694804	0.043054
0	4074	0.695124	0.043124
0	4080	0.695444	0.043194
0	4087	0.695764	0.043264
0	4094	0.696084	0.043334
0	4100	0.696404	0.043404
0	4106	0.696724	0.043474
0	4114	0.697044	0.043544
0	4120	0.697364	0.043614
0	4126	0.697684	0.043684
0	4133	0.698004	0.043754
0	4140	0.698324	0.043824
0	4146	0.698644	0.043894
0	4152	0.698964	0.043964
0	4160	0.699284	0.044034
0	4166	0.699604	0.044104
0	4172	0.699924	0.044174
0	4178	0.700244	0.044244
0	4186	0.700564	0.044314
0	4192	0.700884	0.044384
0	4198	0.701204	0.044454
0	4205	0.701524	0.044524
0	4212	0.701844	0.044594
0	4218	0.702164	0.044664
0	4224	0.702484	0.044734
0	4232	0.702804	0.044804
0	4238	0.703124	0.044874
0	4244	0.703444	0.044944
0	4251	0.703764	0.045014
0	4258	0.704084	0.045084
0	4264	0.704404	0.045154
0	4270	0.704724	0.045224
0	4278	0.705044	0.045294
0	4284	0.705364	0.045364
0	4290	0.705684	0.045434
0	4297	0.706004	0.045504
0	4304	0.706324	0.045574
0	4310	0.706644	0.045644
0	4316	0.706964	0.045714
0	4324	0.707284	0.045784
0	4330	0.707604	0.045854
0	4336	0.707924	0.045924
0	4342	0.708244	0.045994
0	4350	0.708564	0.046064
0	4356	0.708884	0.046134
0	4362	0.709204	0.046204
0	4369	0.709524	0.046274
0	4376	0.709844	0.046344
0	4382	0.710164	0.046414
0	4388	0.710484	0.046484
0	4396	0.710804	0.046554
0	4402	0.711124	0.046624
0	4408	0.711444	0.046694
0	4415	0.711764	0.046764
0	4422	0.712084	0.046834
0	4428	0.712404	0.046904
0	4434	0.712724	0.046974
0	4442	0.713044	0.047044
0	4448	0.713364	0.047114
0	4454	0.713684	0.047184
0	4461	0.714004	0.047254
0	4468	0.714324	0.047324
0	4474	0.714644	0.047394
0	4480	0.714964	0.047464
0	4488	0.715284	0.047534
0	4494	0.715604	0.047604
0	4500	0.715924	0.047674
0	4506	0.716244	0.047744
0	4514	0.716564	0.047814
0	4520	0.716884	0.047884
0	4526	0.717204	0.047954
0	4533	0.717524	0.048024
0	4540	0.717844	0.048094
0	4546	0.718164	0.048164
0	4552	0.718484	0.048234
0	4560	0.718804	0.048304
0	4566	0.719124	0.048374
0	4572	0.719444	0.048444
0	4579	0.719764	0.048514
0	4586	0.720084	0.048584
0	4592	0.720404	0.048654
0	4598	0.720724	0.048724
0	4606	0.721044	0.048794
0	4612	0.721364	0.048864
0	4618	0.721684	0.048934
0	4625	0.722004	0.049004
0	4632	0.722324	0.049074
0	4638	0.722644	0.049144
0	4644	0.722964	0.049214
0	4652	0.723284	0.049284
0	4658	0.723604	0.049354
0	4664	0.723924	0.049424
0	4670	0.724244	0.049494
0	4678	0.724564	0.049564
0	4684	0.724884	0.049634
0	4690	0.725204	0.049704
0	4697	0.725524	0.049774
0	4704	0.725844	0.049844
0	4710	0.726164	0.049914
0	4716	0.726484	0.049984
0	4724	0.726804	0.050054
0	4730	0.727124	0.050124
0	4736	0.727444	0.050194
0	4743	0.727764	0.050264
0	4750	0.728084	0.050334
0	4756	0.728404	0.050404
0	4762	0.728724	0.050474
0	4770	0.729044	0.050544
0	4776	0.729364	0.050614
0	4782	0.729684	0.050684
0	4789	0.730004	0.050754
0	4796	0.730324	0.050824
0	4802	0.730644	0.050894
0	4808	0.730964	0.050964
0	4816	0.731284	0.051034
0	4822	0.731604	0.051104
0	4828	0.731924	0.051174
0	4834	0.732244	0.051244
0	4842	0.732564	0.051314
0	4848	0.732884	0.051384
0	4854	0.733204	0.051454
0	4861	0.733524	0.051524
0	4868	0.733844	0.051594
0	4874	0.734164	0.051664
0	4880	0.734484	0.051734
0	4888	0.734804	0.051804
0	4894	0.735124	0.051874
0	4900	0.735444	0.051944
0	4907	0.735764	0.052014
0	4914	0.736084	0.052084
0	4920	0.736404	0.052154
0	4926	0.736724	0.052224
0	4934	0.737044	0.052294
0	4940	0.737364	0.052364
0	4946	0.737684	0.052434
0	4953	0.738004	0.052504
0	4960	0.738324	0.052574
0	4966	0.738644	0.052644
0	4972	0.738964	0.052714
0	4980	0.739284	0.052784
0	4986	0.739604	0.052854
0	4992	0.739924	0.052924
0	4998	0.740244	0.052994
0	5006	0.740564	0.053064
0	5012	0.740884	0.053134
0	5018	0.741204	0.053204
0	5025	0.741524	0.053274
0	5032	0.741844	0.053344
0	5038	0.742164	0.053414
0	5044	0.742484	0.053484
0	5052	0.742804	0.053554
0	5058	0.743124	0.053624
0	5064	0.743444	0.053694
0	5071	0.743764	0.053764
0	5078	0.744084	0.053834
0	5084	0.744404	0.053904
0	5090	0.744724	0.053974
0	5098	0.745044	0.054044
0	5104	0.745364	0.054114
0	5110	0.745684	0.054184
0	5117	0.746004	0.054254
0	5124	0.746324	0.054324
0	5130	0.746644	0.054394
0	5136	0.746964	0.054464
0	5144	0.747284	0.054534
0	5150	0.747604	0.054604
0	5156	0.747924	0.054674
0	5162	0.748244	0.054744
0	5170	0.748564	0.054814
0	5176	0.748884	0.054884
0	5182	0.749204	0.054954
0	5189	0.749524	0.055024
0	5196	0.749844	0.055094
0	5202	0.750164	0.055164
0	5208	0.750484	0.055234
0	5216	0.750804	0.055304
0	5222	0.751124	0.055374
0	5228	0.751444	0.055444
0	5235	0.751764	0.055514
0	5242	0.752084	0.055584
0	5248	0.752404	0.055654
0	5254	0.752724	0.055724
0	5262	0.753044	0.055794
0	5268	0.753364	0.055864
0	5274	0.753684	0.055934
0	5281	0.754004	0.056004
0	5288	0.754324	0.056074
0	5294	0.754644	0.056144
0	5300	0.754964	0.056214
0	5308	0.755284	0.056284
0	5314	0.755604	0.056354
0	5320	0.755924	0.056424
0	5326	0.756244	0.056494
0	5334	0.756564	0.056564
0	5340	0.756884	0.056634
0	5346	0.757204	0.056704
0	5353	0.757524	0.056774
0	5360	0.757844	0.056844
0	5366	0.758164	0.056914
0	5372	0.758484	0.056984
0	5380	0.758804	0.057054
0	5386	0.759124	0.057124
0	5392	0.759444	0.057194
0	5399	0.759764	0.057264
0	5406	0.760084	0.057334
0	5412	0.760404	0.057404
0	5418	0.760724	0.057474
0	5426	0.761044	0.057544
0	5432	0.761364	0.057614
0	5438	0.761684	0.057684
0	5445	0.762004	0.057754
0	5452	0.762324	0.057824
0	5458	0.762644	0.057894
0	5464	0.762964	0.057964
0	5472	0.763284	0.058034
0	5478	0.763604	0.058104
0	5484	0.763924	0.058174
0	5490	0.764244	0.058244
0	5498	0.764564	0.058314
0	5504	0.764884	0.058384
0	5510	0.765204	0.058454
0	5517	0.765524	0.058524
0	5524	0.765844	0.058594
0	5530	0.766164	0.058664
0	5536	0.766484	0.058734
0	5544	0.766804	0.058804
0	5550	0.767124	0.058874
0	5556	0.767444	0.058944
0	5563	0.767764	0.059014
0	5570	0.768084	0.059084
0	5576	0.768404	0.059154
0	5582	0.768724	0.059224
0	5590	0.769044	0.059294
0	5596	0.769364	0.059364
0	5602	0.769684	0.059434
0	5609	0.770004	0.059504
0	5616	0.770324	0.059574
0	5622	0.770644	0.059644
0	5628	0.770964	0.059714
0	5636	0.771284	0.059784
0	5642	0.771604	0.059854
0	5648	0.771924	0.059924
0	5654	0.772244	0.059994
0	5662	0.772564	0.060064
0	5668	0.772884	0.060134
0	5674	0.773204	0.060204
0	5681	0.773524	0.060274
0	5688	0.773844	0.060344
0	5694	0.774164	0.060414
0	5700	0.774484	0.060484
0	5708	0.774804	0.060554
0	5714	0.775124	0.060624
0	5720	0.775444	0.060694
0	5727	0.775764	0.060764
0	5734	0.776084	0.060834
0	5740	0.776404	0.060904
0	5746	0.776724	0.060974
0	5754	0.777044	0.061044
0	5760	0.777364	0.061114
0	5766	0.777684	0.061184
0	5773	0.778004	0.061254
0	5780	0.778324	0.061324
0	5786	0.778644	0.061394
0	5792	0.778964	0.061464
0	5800	0.779284	0.061534
0	5806	0.779604	0.061604
0	5812	0.779924	0.061674
0	5818	0.780244	0.061744
0	5826	0.780564	0.061814
0	5832	0.780884	0.061884
0	5838	0.781204	0.061954
0	5845	0.781524	0.062024
0	5852	0.781844	0.062094
0	5858	0.782164	0.062164
0	5864	0.782484	0.062234
0	5872	0.782804	0.062304
0	5878	0.783124	0.062374
0	5884	0.783444	0.062444
0	5891	0.783764	0.062514
0	5898	0.784084	0.062584
0	5904	0.784404	0.062654
0	5910	0.784724	0.062724
0	5918	0.785044	0.062794
0	5924	0.785364	0.062864
0	5930	0.785684	0.062934
0	5937	0.786004	0.063004
0	5944	0.786324	0.063074
0	5950	0.786644	0.063144
0	5956	0.786964	0.063214
0	5964	0.787284	0.063284
0	5970	0.787604	0.063354
0	5976	0.787924	0.063424
0	5982	0.788244	0.063494
0	5990	0.788564	0.063564
0	5996	0.788884	0.063634
0	6002	0.789204	0.063704
0	6009	0.789524	0.063774
0	6016	0.789844	0.063844
0	6022	0.790164	0.063914
0	6028	0.790484	0.063984
0	6036	0.790804	0.064054
0	6042	0.791124	0.064124
0	6048	0.791444	0.064194
0	6055	0.791764	0.064264
0	6062	0.792084	0.064334
0	6068	0.792404	0.064404
0	6074	0.792724	0.064474
0	6082	0.793044	0.064544
0	6088	0.793364	0.064614
0	6094	0.793684	0.064684
0	6101	0.794004	0.064754
0	6108	0.794324	0.064824
0	6114	0.794644	0.064894
0	6120	0.794964	0.064964
0	6128	0.795284	0.065034
0	6134	0.795604	0.065104
0	6140	0.795924	0.065174
0	6146	0.796244	0.065244
0	6154	0.796564	0.065314
0	6160	0.796884	0.065384
0	6166	0.797204	0.065454
0	6173	0.797524	0.065524
0	6180	0.797844	0.065594
0	6186	0.798164	0.065664
0	6192	0.798484	0.065734
0	6200	0.798804	0.065804
0	6206	0.799124	0.065874
0	6212	0.799444	0.065944
0	6219	0.799764	0.066014
0	6226	0.800084	0.066084
0	6232	0.800404	0.066154
0	6238	0.800724	0.066224
0	6246	0.801044	0.066294
0	6252	0.801364	0.066364
0	6258	0.801684	0.066434
0	6265	0.802004	0.066504
0	6272	0.802324	0.066574
0	6278	0.802644	0.066644
0	6284	0.802964	0.066714
0	6292	0.803284	0.066784
0	6298	0.803604	0.066854
0	6304	0.803924	0.066924
0	6310	0.804244	0.066994
0	6318	0.804564	0.067064
0	6324	0.804884	0.067134
0	6330	0.805204	0.067204
0	6337	0.805524	0.067274
0	6344	0.805844	0.067344
0	6350	0.806164	0.067414
0	6356	0.806484	0.067484
0	6364	0.806804	0.067554
0	6370	0.807124	0.067624
0	6376	0.807444	0.067694
0	6383	0.807764	0.067764
0	6390	0.808084	0.067834
0	6396	0.808404	0.067904
0	6402	0.808724	0.067974
0	6410	0.809044	0.068044
0	6416	0.809364	0.068114
0	6422	0.809684	0.068184
0	6429	0.810004	0.068254
0	6436	0.810324	0.068324
0	6442	0.810644	0.068394
0	6448	0.810964	0.068464
0	6456	0.811284	0.068534
0	6462	0.811604	0.068604
0	6468	0.811924	0.068674
0	6474	0.812244	0.068744
0	6482	0.812564	0.068814
0	6488	0.812884	0.068884
0	6494	0.813204	0.068954
0	6501	0.813524	0.069024
0	6508	0.813844	0.069094
0	6514	0.814164	0.069164
0	6520	0.814484	0.069234
0	6528	0.814804	0.069304
0	6534	0.815124	0.069374
0	6540	0.815444	0.069444
0	6547	0.815764	0.069514
0	6554	0.816084	0.069584
0	6560	0.816404	0.069654
0	6566	0.816724	0.069724
0	6574	0.817044	0.069794
0	6580	0.817364	0.069864
0	6586	0.817684	0.069934
0	6593	0.818004	0.070004
0	6600	0.818324	0.070074
0	6606	0.818644	0.070144
0	6612	0.818964	0.070214
0	6620	0.819284	0.070284
0	6626	0.819604	0.070354
0	6632	0.819924	0.070424
0	6638	0.820244	0.070494
0	6646	0.820564	0.070564
0	6652	0.820884	0.070634
0	6658	0.821204	0.070704
0	6665	0.821524	0.070774
0	6672	0.821844	0.070844
0	6678	0.822164	0.070914
0	6684	0.822484	0.070984
0	6692	0.822804	0.071054
0	6698	0.823124	0.071124
0	6704	0.823444	0.071194
0	6711	0.823764	0.071264
0	6718	0.824084	0.071334
0	6724	0.824404	0.071404
0	6730	0.824724	0.071474
0	6738	0.825044	0.071544
0	6744	0.825364	0.071614
0	6750	0.825684	0.071684
0	6757	0.826004	0.071754
0	6764	0.826324	0.071824
0	6770	0.826644	0.071894
0	6776	0.826964	0.071964
0	6784	0.827284	0.072034
0	6790	0.827604	0.072104
0	6796	0.827924	0.072174
0	6802	0.828244	0.072244
0	6810	0.828564	0.072314
0	6816	0.828884	0.072384
0	6822	0.829204	0.072454
0	6829	0.829524	0.072524
0	6836	0.829844	0.072594
0	6842	0.830164	0.072664
0	6848	0.830484	0.072734
0	6856	0.830804	0.072804
0	6862	0.831124	0.072874
0	6868	0.831444	0.072944
0	6875	0.831764	0.073014
0	6882	0.832084	0.073084
0	6888	0.832404	0.073154
0	6894	0.832724	0.073224
0	6902	0.833044	0.073294
0	6908	0.833364	0.073364
0	6914	0.833684	0.073434
0	6921	0.834004	0.073504
0	6928	0.834324	0.073574
0	6934	0.834644	0.073644
0	6940	0.834964	0.073714
0	6948	0.835284	0.073784
0	6954	0.835604	0.073854
0	6960	0.835924	0.073924
0	6966	0.836244	0.073994
0	6974	0.836564	0.074064
0	6980	0.836884	0.074134
0	6986	0.837204	0.074204
0	6993	0.837524	0.074274
0	7000	0.837844	0.074344
0	7006	0.838164	0.074414
0	7012	0.838484	0.074484
0	7020	0.838804	0.074554
0	7026	0.839124	0.074624
0	7032	0.839444	0.074694
0	7039	0.839764	0.074764
0	7046	0.840084	0.074834
0	7052	0.840404	0.074904
0	7058	0.840724	0.074974
0	7066	0.841044	0.075044
0	7072	0.841364	0.075114
0	7078	0.841684	0.075184
0	7085	0.842004	0.075254
0	7092	0.842324	0.075324
0	7098	0.842644	0.075394
0	7104	0.842964	0.075464
0	7112	0.843284	0.075534
0	7118	0.843604	0.075604
0	7124	0.843924	0.075674
0	7130	0.844244	0.075744
0	7138	0.844564	0.075814
0	7144	0.844884	0.075884
0	7150	0.845204	0.075954
0	7157	0.845524	0.076024
0	7164	0.845844	0.076094
0	7170	0.846164	0.076164
0	7176	0.846484	0.076234
0	7184	0.846804	0.076304
0	7190	0.847124	0.076374
0	7196	0.847444	0.076444
0	7203	0.847764	0.076514
0	7210	0.848084	0.076584
0	7216	0.848404	0.076654
0	7222	0.848724	0.076724
0	7230	0.849044	0.076794
0	7236	0.849364	0.076864
0	7242	0.849684	0.076934
0	7249	0.850004	0.077004
0	7256	0.850324	0.077074
0	7262	0.850644	0.077144
0	7268	0.850964	0.077214
0	7276	0.851284	0.077284
0	7282	0.851604	0.077354
0	7288	0.851924	0.077424
0	7294	0.852244	0.077494
0	7302	0.852564	0.077564
0	7308	0.852884	0.077634
0	7314	0.853204	0.077704
0	7321	0.853524	0.077774
0	7328	0.853844	0.077844
0	7334	0.854164	0.077914
0	7340	0.854484	0.077984
0	7348	0.854804	0.078054
0	7354	0.855124	0.078124
0	7360	0.855444	0.078194
0	7367	0.855764	0.078264
0	7374	0.856084	0.078334
0	7380	0.856404	0.078404
0	7386	0.856724	0.078474
0	7394	0.857044	0.078544
0	7400	0.857364	0.078614
0	7406	0.857684	0.078684
0	7413	0.858004	0.078754
0	7420	0.858324	0.078824
0	7426	0.858644	0.078894
0	7432	0.858964	0.078964
0	7440	0.859284	0.079034
0	7446	0.859604	0.079104
0	7452	0.859924	0.079174
0	7458	0.860244	0.079244
0	7466	0.860564	0.079314
0	7472	0.860884	0.079384
0	7478	0.861204	0.079454
0	7485	0.861524	0.079524
0	7492	0.861844	0.079594
0	7498	0.862164	0.079664
0	7504	0.862484	0.079734
0	7512	0.862804	0.079804
0	7518	0.863124	0.079874
0	7524	0.863444	0.079944
0	7531	0.863764	0.080014
0	7538	0.864084	0.080084
0	7544	0.864404	0.080154
0	7550	0.864724	0.080224
0	7558	0.865044	0.080294
0	7564	0.865364	0.080364
0	7570	0.865684	0.080434
0	7577	0.866004	0.080504
0	7584	0.866324	0.080574
0	7590	0.866644	0.080644
0	7596	0.866964	0.080714
0	7604	0.867284	0.080784
0	7610	0.867604	0.080854
0	7616	0.867924	0.080924
0	7622	0.868244	0.080994
0	7630	0.868564	0.081064
0	7636	0.868884	0.081134
0	7642	0.869204	0.081204
0	7649	0.869524	0.081274
0	7656	0.869844	0.081344
0	7662	0.870164	0.081414
0	7668	0.870484	0.081484
0	7676	0.870804	0.081554
0	7682	0.871124	0.081624
0	7688	0.871444	0.081694
0	7695	0.871764	0.081764
0	7702	0.872084	0.081834
0	7708	0.872404	0.081904
0	7714	0.872724	0.081974
0	7722	0.873044	0.082044
0	7728	0.873364	0.082114
0	7734	0.873684	0.082184
0	7741	0.874004	0.082254
0	7748	0.874324	0.082324
0	7754	0.874644	0.082394
0	7760	0.874964	0.082464
0	7768	0.875284	0.082534
0	7774	0.875604	0.082604
0	7780	0.875924	0.082674