file 3092846 1678656576                                         
version 3
run General-0-20230313-02:59:28-46066
attr configname General
attr datetime 20230313-02:59:28
attr datetimef 20230313-025928
attr experiment General
attr inifile tCPNet.ini
attr iterationvars ""
attr iterationvarsd ""
attr iterationvarsf ""
attr measurement ""
attr network TCPNet
attr processid 46066
attr repetition 0
attr replication #0
attr resultdir results
attr runnumber 0
attr seedset 0
config network TCPNet

vector 0 TCPNet.server[0] "" ETV
0	461 1197353 5 171296 0.032634 15.971289741618 32768 0.000634 1.072180712663 16627.03660969 10236.40790344
vector 1 TCPNet.server[1] "" ETV
vector 2 TCPNet.server[2] "" ETV
0	1197880 1236488 171301 413391 15.972229174236 119.990648523856 31186 1.07224298258 5.881149457108 79793.229791441 245091.36640076
1	2434368 452845 252863 413400 41.806823509662 119.998388382048 11404 1.803073192735 5.880649448544 38698.674437699 146260.85352023
2	2887213 205632 338585 413395 80.005746798768 119.994042875329 5968 0.000314 0.000563474853 1.9170618932158 0.00062262096025587

