version 3
run General-0-20230313-02:59:28-46066
attr configname General
attr datetime 20230313-02:59:28
attr datetimef 20230313-025928
attr experiment General
attr inifile tCPNet.ini
attr iterationvars ""
attr iterationvarsd ""
attr iterationvarsf ""
attr measurement ""
attr network TCPNet
attr processid 46066
attr repetition 0
attr replication #0
attr resultdir results
attr runnumber 0
attr seedset 0
config network TCPNet

vector 0 TCPNet.server[0] "" ETV
0	5	0.032634	0.000634
0	10	0.064634	0.000634
0	15	0.096634	0.000634
0	20	0.128634	0.000634
0	25	0.160634	0.000634
0	30	0.192634	0.000634
0	35	0.224634	0.000634
0	40	0.256634	0.000634
0	45	0.288634	0.000634
0	50	0.320634	0.000634
0	55	0.352634	0.000634
0	60	0.384634	0.000634
0	65	0.416634	0.000634
0	70	0.448634	0.000634
0	75	0.480634	0.000634
0	100	0.500884	0.000634
0	106	0.501204	0.000704
0	113	0.501524	0.000774
0	120	0.501844	0.000844
0	126	0.502164	0.000914
0	132	0.502484	0.000984
0	140	0.502804	0.001054
0	146	0.503124	0.001124
0	152	0.503444	0.001194
0	159	0.503764	0.001264
0	166	0.504084	0.001334
0	172	0.504404	0.001404
0	178	0.504724	0.001474
0	186	0.505044	0.001544
0	192	0.505364	0.001614
0	198	0.505684	0.001684
0	205	0.506004	0.001754
0	212	0.506324	0.001824
0	218	0.506644	0.001894
0	224	0.506964	0.001964
0	232	0.507284	0.002034
0	238	0.507604	0.002104
0	244	0.507924	0.002174
0	250	0.508244	0.002244
0	258	0.508564	0.002314
0	264	0.508884	0.002384
0	270	0.509204	0.002454
0	277	0.509524	0.002524
0	284	0.509844	0.002594
0	290	0.510164	0.002664
0	296	0.510484	0.002734
0	304	0.510804	0.002804
0	310	0.511124	0.002874
0	316	0.511444	0.002944
0	323	0.511764	0.003014
0	330	0.512084	0.003084
0	336	0.512404	0.003154
0	342	0.512724	0.003224
0	350	0.513044	0.003294
0	356	0.513364	0.003364
0	362	0.513684	0.003434
0	369	0.514004	0.003504
0	376	0.514324	0.003574
0	382	0.514644	0.003644
0	388	0.514964	0.003714
0	396	0.515284	0.003784
0	402	0.515604	0.003854
0	408	0.515924	0.003924
0	414	0.516244	0.003994
0	422	0.516564	0.004064
0	428	0.516884	0.004134
0	434	0.517204	0.004204
0	441	0.517524	0.004274
0	448	0.517844	0.004344
0	454	0.518164	0.004414
0	460	0.518484	0.004484
0	468	0.518804	0.004554
0	474	0.519124	0.004624
0	480	0.519444	0.004694
0	487	0.519764	0.004764
0	494	0.520084	0.004834
0	500	0.520404	0.004904
0	506	0.520724	0.004974
0	514	0.521044	0.005044
0	520	0.521364	0.005114
0	526	0.521684	0.005184
0	533	0.522004	0.005254
0	540	0.522324	0.005324
0	546	0.522644	0.005394
0	552	0.522964	0.005464
0	560	0.523284	0.005534
0	566	0.523604	0.005604
0	572	0.523924	0.005674
0	578	0.524244	0.005744
0	586	0.524564	0.005814
0	592	0.524884	0.005884
0	598	0.525204	0.005954
0	605	0.525524	0.006024
0	612	0.525844	0.006094
0	618	0.526164	0.006164
0	624	0.526484	0.006234
0	632	0.526804	0.006304
0	638	0.527124	0.006374
0	644	0.527444	0.006444
0	651	0.527764	0.006514
0	658	0.528084	0.006584
0	664	0.528404	0.006654
0	670	0.528724	0.006724
0	678	0.529044	0.006794
0	684	0.529364	0.006864
0	690	0.529684	0.006934
0	697	0.530004	0.007004
0	704	0.530324	0.007074
0	710	0.530644	0.007144
0	716	0.530964	0.007214
0	724	0.531284	0.007284
0	730	0.531604	0.007354
0	736	0.531924	0.007424
0	742	0.532244	0.007494
0	750	0.532564	0.007564
0	756	0.532884	0.007634
0	762	0.533204	0.007704
0	769	0.533524	0.007774
0	776	0.533844	0.007844
0	782	0.534164	0.007914
0	788	0.534484	0.007984
0	796	0.534804	0.008054
0	802	0.535124	0.008124
0	808	0.535444	0.008194
0	815	0.535764	0.008264
0	822	0.536084	0.008334
0	828	0.536404	0.008404
0	834	0.536724	0.008474
0	842	0.537044	0.008544
0	848	0.537364	0.008614
0	854	0.537684	0.008684
0	861	0.538004	0.008754
0	868	0.538324	0.008824
0	874	0.538644	0.008894
0	880	0.538964	0.008964
0	888	0.539284	0.009034
0	894	0.539604	0.009104
0	900	0.539924	0.009174
0	906	0.540244	0.009244
0	914	0.540564	0.009314
0	920	0.540884	0.009384
0	926	0.541204	0.009454
0	933	0.541524	0.009524
0	940	0.541844	0.009594
0	946	0.542164	0.009664
0	952	0.542484	0.009734
0	960	0.542804	0.009804
0	966	0.543124	0.009874
0	972	0.543444	0.009944
0	979	0.543764	0.010014
0	986	0.544084	0.010084
0	992	0.544404	0.010154
0	998	0.544724	0.010224
0	1006	0.545044	0.010294
0	1012	0.545364	0.010364
0	1018	0.545684	0.010434
0	1025	0.546004	0.010504
0	1032	0.546324	0.010574
0	1038	0.546644	0.010644
0	1044	0.546964	0.010714
0	1052	0.547284	0.010784
0	1058	0.547604	0.010854
0	1064	0.547924	0.010924
0	1070	0.548244	0.010994
0	1078	0.548564	0.011064
0	1084	0.548884	0.011134
0	1090	0.549204	0.011204
0	1097	0.549524	0.011274
0	1104	0.549844	0.011344
0	1110	0.550164	0.011414
0	1116	0.550484	0.011484
0	1124	0.550804	0.011554
0	1130	0.551124	0.011624
0	1136	0.551444	0.011694
0	1143	0.551764	0.011764
0	1150	0.552084	0.011834
0	1156	0.552404	0.011904
0	1162	0.552724	0.011974
0	1170	0.553044	0.012044
0	1176	0.553364	0.012114
0	1182	0.553684	0.012184
0	1189	0.554004	0.012254
0	1196	0.554324	0.012324
0	1202	0.554644	0.012394
0	1208	0.554964	0.012464
0	1216	0.555284	0.012534
0	1222	0.555604	0.012604
0	1228	0.555924	0.012674
0	1234	0.556244	0.012744
0	1242	0.556564	0.012814
0	1248	0.556884	0.012884
0	1254	0.557204	0.012954
0	1261	0.557524	0.013024
0	1268	0.557844	0.013094
0	1274	0.558164	0.013164
0	1280	0.558484	0.013234
0	1288	0.558804	0.013304
0	1294	0.559124	0.013374
0	1300	0.559444	0.013444
0	1307	0.559764	0.013514
0	1314	0.560084	0.013584
0	1320	0.560404	0.013654
0	1326	0.560724	0.013724
0	1334	0.561044	0.013794
0	1340	0.561364	0.013864
0	1346	0.561684	0.013934
0	1353	0.562004	0.014004
0	1360	0.562324	0.014074
0	1366	0.562644	0.014144
0	1372	0.562964	0.014214
0	1380	0.563284	0.014284
0	1386	0.563604	0.014354
0	1392	0.563924	0.014424
0	1398	0.564244	0.014494
0	1406	0.564564	0.014564
0	1412	0.564884	0.014634
0	1418	0.565204	0.014704
0	1425	0.565524	0.014774
0	1432	0.565844	0.014844
0	1438	0.566164	0.014914
0	1444	0.566484	0.014984
0	1452	0.566804	0.015054
0	1458	0.567124	0.015124
0	1464	0.567444	0.015194
0	1471	0.567764	0.015264
0	1478	0.568084	0.015334
0	1484	0.568404	0.015404
0	1490	0.568724	0.015474
0	1498	0.569044	0.015544
0	1504	0.569364	0.015614
0	1510	0.569684	0.015684
0	1517	0.570004	0.015754
0	1524	0.570324	0.015824
0	1530	0.570644	0.015894
0	1536	0.570964	0.015964
0	1544	0.571284	0.016034
0	1550	0.571604	0.016104
0	1556	0.571924	0.016174
0	1562	0.572244	0.016244
0	1570	0.572564	0.016314
0	1576	0.572884	0.016384
0	1582	0.573204	0.016454
0	1589	0.573524	0.016524
0	1596	0.573844	0.016594
0	1602	0.574164	0.016664
0	1608	0.574484	0.016734
0	1616	0.574804	0.016804
0	1622	0.575124	0.016874
0	1628	0.575444	0.016944
0	1635	0.575764	0.017014
0	1642	0.576084	0.017084
0	1648	0.576404	0.017154
0	1654	0.576724	0.017224
0	1662	0.577044	0.017294
0	1668	0.577364	0.017364
0	1674	0.577684	0.017434
0	1681	0.578004	0.017504
0	1688	0.578324	0.017574
0	1694	0.578644	0.017644
0	1700	0.578964	0.017714
0	1708	0.579284	0.017784
0	1714	0.579604	0.017854
0	1720	0.579924	0.017924
0	1726	0.580244	0.017994
0	1734	0.580564	0.018064
0	1740	0.580884	0.018134
0	1746	0.581204	0.018204
0	1753	0.581524	0.018274
0	1760	0.581844	0.018344
0	1766	0.582164	0.018414
0	1772	0.582484	0.018484
0	1780	0.582804	0.018554
0	1786	0.583124	0.018624
0	1792	0.583444	0.018694
0	1799	0.583764	0.018764
0	1806	0.584084	0.018834
0	1812	0.584404	0.018904
0	1818	0.584724	0.018974
0	1826	0.585044	0.019044
0	1832	0.585364	0.019114
0	1838	0.585684	0.019184
0	1845	0.586004	0.019254
0	1852	0.586324	0.019324
0	1858	0.586644	0.019394
0	1864	0.586964	0.019464
0	1872	0.587284	0.019534
0	1878	0.587604	0.019604
0	1884	0.587924	0.019674
0	1890	0.588244	0.019744
0	1898	0.588564	0.019814
0	1904	0.588884	0.019884
0	1910	0.589204	0.019954
0	1917	0.589524	0.020024
0	1924	0.589844	0.020094
0	1930	0.590164	0.020164
0	1936	0.590484	0.020234
0	1944	0.590804	0.020304
0	1950	0.591124	0.020374
0	1956	0.591444	0.020444
0	1963	0.591764	0.020514
0	1970	0.592084	0.020584
0	1976	0.592404	0.020654
0	1982	0.592724	0.020724
0	1990	0.593044	0.020794
0	1996	0.593364	0.020864
0	2002	0.593684	0.020934
0	2009	0.594004	0.021004
0	2016	0.594324	0.021074
0	2022	0.594644	0.021144
0	2028	0.594964	0.021214
0	2036	0.595284	0.021284
0	2042	0.595604	0.021354
0	2048	0.595924	0.021424
0	2054	0.596244	0.021494
0	2062	0.596564	0.021564
0	2068	0.596884	0.021634
0	2074	0.597204	0.021704
0	2081	0.597524	0.021774
0	2088	0.597844	0.021844
0	2094	0.598164	0.021914
0	2100	0.598484	0.021984
0	2108	0.598804	0.022054
0	2114	0.599124	0.022124
0	2120	0.599444	0.022194
0	2127	0.599764	0.022264
0	2134	0.600084	0.022334
0	2140	0.600404	0.022404
0	2146	0.600724	0.022474
0	2154	0.601044	0.022544
0	2160	0.601364	0.022614
0	2166	0.601684	0.022684
0	2173	0.602004	0.022754
0	2180	0.602324	0.022824
0	2186	0.602644	0.022894
0	2192	0.602964	0.022964
0	2200	0.603284	0.023034
0	2206	0.603604	0.023104
0	2212	0.603924	0.023174
0	2218	0.604244	0.023244
0	2226	0.604564	0.023314
0	2232	0.604884	0.023384
0	2238	0.605204	0.023454
0	2245	0.605524	0.023524
0	2252	0.605844	0.023594
0	2258	0.606164	0.023664
0	2264	0.606484	0.023734
0	2272	0.606804	0.023804
0	2278	0.607124	0.023874
0	2284	0.607444	0.023944
0	2291	0.607764	0.024014
0	2298	0.608084	0.024084
0	2304	0.608404	0.024154
0	2310	0.608724	0.024224
0	2318	0.609044	0.024294
0	2324	0.609364	0.024364
0	2330	0.609684	0.024434
0	2337	0.610004	0.024504
0	2344	0.610324	0.024574
0	2350	0.610644	0.024644
0	2356	0.610964	0.024714
0	2364	0.611284	0.024784
0	2370	0.611604	0.024854
0	2376	0.611924	0.024924
0	2382	0.612244	0.024994
0	2390	0.612564	0.025064
0	2396	0.612884	0.025134
0	2402	0.613204	0.025204
0	2409	0.613524	0.025274
0	2416	0.613844	0.025344
0	2422	0.614164	0.025414
0	2428	0.614484	0.025484
0	2436	0.614804	0.025554
0	2442	0.615124	0.025624
0	2448	0.615444	0.025694
0	2455	0.615764	0.025764
0	2462	0.616084	0.025834
0	2468	0.616404	0.025904
0	2474	0.616724	0.025974
0	2482	0.617044	0.026044
0	2488	0.617364	0.026114
0	2494	0.617684	0.026184
0	2501	0.618004	0.026254
0	2508	0.618324	0.026324
0	2514	0.618644	0.026394
0	2520	0.618964	0.026464
0	2528	0.619284	0.026534
0	2534	0.619604	0.026604
0	2540	0.619924	0.026674
0	2546	0.620244	0.026744
0	2554	0.620564	0.026814
0	2560	0.620884	0.026884
0	2566	0.621204	0.026954
0	2573	0.621524	0.027024
0	2580	0.621844	0.027094
0	2586	0.622164	0.027164
0	2592	0.622484	0.027234
0	2600	0.622804	0.027304
0	2606	0.623124	0.027374
0	2612	0.623444	0.027444
0	2619	0.623764	0.027514
0	2626	0.624084	0.027584
0	2632	0.624404	0.027654
0	2638	0.624724	0.027724
0	2646	0.625044	0.027794
0	2652	0.625364	0.027864
0	2658	0.625684	0.027934
0	2665	0.626004	0.028004
0	2672	0.626324	0.028074
0	2678	0.626644	0.028144
0	2684	0.626964	0.028214
0	2692	0.627284	0.028284
0	2698	0.627604	0.028354
0	2704	0.627924	0.028424
0	2710	0.628244	0.028494
0	2718	0.628564	0.028564
0	2724	0.628884	0.028634
0	2730	0.629204	0.028704
0	2737	0.629524	0.028774
0	2744	0.629844	0.028844
0	2750	0.630164	0.028914
0	2756	0.630484	0.028984
0	2764	0.630804	0.029054
0	2770	0.631124	0.029124
0	2776	0.631444	0.029194
0	2783	0.631764	0.029264
0	2790	0.632084	0.029334
0	2796	0.632404	0.029404
0	2802	0.632724	0.029474
0	2810	0.633044	0.029544
0	2816	0.633364	0.029614
0	2822	0.633684	0.029684
0	2829	0.634004	0.029754
0	2836	0.634324	0.029824
0	2842	0.634644	0.029894
0	2848	0.634964	0.029964
0	2856	0.635284	0.030034
0	2862	0.635604	0.030104
0	2868	0.635924	0.030174
0	2874	0.636244	0.030244
0	2882	0.636564	0.030314
0	2888	0.636884	0.030384
0	2894	0.637204	0.030454
0	2901	0.637524	0.030524
0	2908	0.637844	0.030594
0	2914	0.638164	0.030664
0	2920	0.638484	0.030734
0	2928	0.638804	0.030804
0	2934	0.639124	0.030874
0	2940	0.639444	0.030944
0	2947	0.639764	0.031014
0	2954	0.640084	0.031084
0	2960	0.640404	0.031154
0	2966	0.640724	0.031224
0	2974	0.641044	0.031294
0	2980	0.641364	0.031364
0	2986	0.641684	0.031434
0	2993	0.642004	0.031504
0	3000	0.642324	0.031574
0	3006	0.642644	0.031644
0	3012	0.642964	0.031714
0	3020	0.643284	0.031784
0	3026	0.643604	0.031854
0	3032	0.643924	0.031924
0	3038	0.644244	0.031994
0	3046	0.644564	0.032064
0	3052	0.644884	0.032134
0	3058	0.645204	0.032204
0	3065	0.645524	0.032274
0	3072	0.645844	0.032344
0	3078	0.646164	0.032414
0	3084	0.646484	0.032484
0	3092	0.646804	0.032554
0	3098	0.647124	0.032624
0	3104	0.647444	0.032694
0	3111	0.647764	0.032764
0	3118	0.648084	0.032834
0	3124	0.648404	0.032904
0	3130	0.648724	0.032974
0	3138	0.649044	0.033044
0	3144	0.649364	0.033114
0	3150	0.649684	0.033184
0	3157	0.650004	0.033254
0	3164	0.650324	0.033324
0	3170	0.650644	0.033394
0	3176	0.650964	0.033464
0	3184	0.651284	0.033534
0	3190	0.651604	0.033604
0	3196	0.651924	0.033674
0	3202	0.652244	0.033744
0	3210	0.652564	0.033814
0	3216	0.652884	0.033884
0	3222	0.653204	0.033954
0	3229	0.653524	0.034024
0	3236	0.653844	0.034094
0	3242	0.654164	0.034164
0	3248	0.654484	0.034234
0	3256	0.654804	0.034304
0	3262	0.655124	0.034374
0	3268	0.655444	0.034444
0	3275	0.655764	0.034514
0	3282	0.656084	0.034584
0	3288	0.656404	0.034654
0	3294	0.656724	0.034724
0	3302	0.657044	0.034794
0	3308	0.657364	0.034864
0	3314	0.657684	0.034934
0	3321	0.658004	0.035004
0	3328	0.658324	0.035074
0	3334	0.658644	0.035144
0	3340	0.658964	0.035214
0	3348	0.659284	0.035284
0	3354	0.659604	0.035354
0	3360	0.659924	0.035424
0	3366	0.660244	0.035494
0	3374	0.660564	0.035564
0	3380	0.660884	0.035634
0	3386	0.661204	0.035704
0	3393	0.661524	0.035774
0	3400	0.661844	0.035844
0	3406	0.662164	0.035914
0	3412	0.662484	0.035984
0	3420	0.662804	0.036054
0	3426	0.663124	0.036124
0	3432	0.663444	0.036194
0	3439	0.663764	0.036264
0	3446	0.664084	0.036334
0	3452	0.664404	0.036404
0	3458	0.664724	0.036474
0	3466	0.665044	0.036544
0	3472	0.665364	0.036614
0	3478	0.665684	0.036684
0	3485	0.666004	0.036754
0	3492	0.666324	0.036824
0	3498	0.666644	0.036894
0	3504	0.666964	0.036964
0	3512	0.667284	0.037034
0	3518	0.667604	0.037104
0	3524	0.667924	0.037174
0	3530	0.668244	0.037244
0	3538	0.668564	0.037314
0	3544	0.668884	0.037384
0	3550	0.669204	0.037454
0	3557	0.669524	0.037524
0	3564	0.669844	0.037594
0	3570	0.670164	0.037664
0	3576	0.670484	0.037734
0	3584	0.670804	0.037804
0	3590	0.671124	0.037874
0	3596	0.671444	0.037944
0	3603	0.671764	0.038014
0	3610	0.672084	0.038084
0	3616	0.672404	0.038154
0	3622	0.672724	0.038224
0	3630	0.673044	0.038294
0	3636	0.673364	0.038364
0	3642	0.673684	0.038434
0	3649	0.674004	0.038504
0	3656	0.674324	0.038574
0	3662	0.674644	0.038644
0	3668	0.674964	0.038714
0	3676	0.675284	0.038784
0	3682	0.675604	0.038854
0	3688	0.675924	0.038924
0	3694	0.676244	0.038994
0	3702	0.676564	0.039064
0	3708	0.676884	0.039134
0	3714	0.677204	0.039204
0	3721	0.677524	0.039274
0	3728	0.677844	0.039344
0	3734	0.678164	0.039414
0	3740	0.678484	0.039484
0	3748	0.678804	0.039554
0	3754	0.679124	0.039624
0	3760	0.679444	0.039694
0	3767	0.679764	0.039764
0	3774	0.680084	0.039834
0	3780	0.680404	0.039904
0	3786	0.680724	0.039974
0	3794	0.681044	0.040044
0	3800	0.681364	0.040114
0	3806	0.681684	0.040184
0	3813	0.682004	0.040254
0	3820	0.682324	0.040324
0	3826	0.682644	0.040394
0	3832	0.682964	0.040464
0	3840	0.683284	0.040534
0	3846	0.683604	0.040604
0	3852	0.683924	0.040674
0	3858	0.684244	0.040744
0	3866	0.684564	0.040814
0	3872	0.684884	0.040884
0	3878	0.685204	0.040954
0	3885	0.685524	0.041024
0	3892	0.685844	0.041094
0	3898	0.686164	0.041164
0	3904	0.686484	0.041234
0	3912	0.686804	0.041304
0	3918	0.687124	0.041374
0	3924	0.687444	0.041444
0	3931	0.687764	0.041514
0	3938	0.688084	0.041584
0	3944	0.688404	0.041654
0	3950	0.688724	0.041724
0	3958	0.689044	0.041794
0	3964	0.689364	0.041864
0	3970	0.689684	0.041934
0	3977	0.690004	0.042004
0	3984	0.690324	0.042074
0	3990	0.690644	0.042144
0	3996	0.690964	0.042214
0	4004	0.691284	0.042284
0	4010	0.691604	0.042354
0	4016	0.691924	0.042424
0	4022	0.692244	0.042494
0	4030	0.692564	0.042564
0	4036	0.692884	0.042634
0	4042	0.693204	0.042704
0	4049	0.693524	0.042774
0	4056	0.693844	0.042844
0	4062	0.694164	0.042914
0	4068	0.694484	0.042984
0	4076	0.694804	0.043054
0	4082	0.695124	0.043124
0	4088	0.695444	0.043194
0	4095	0.695764	0.043264
0	4102	0.696084	0.043334
0	4108	0.696404	0.043404
0	4114	0.696724	0.043474
0	4122	0.697044	0.043544
0	4128	0.697364	0.043614
0	4134	0.697684	0.043684
0	4141	0.698004	0.043754
0	4148	0.698324	0.043824
0	4154	0.698644	0.043894
0	4160	0.698964	0.043964
0	4168	0.699284	0.044034
0	4174	0.699604	0.044104
0	4180	0.699924	0.044174
0	4186	0.700244	0.044244
0	4194	0.700564	0.044314
0	4200	0.700884	0.044384
0	4206	0.701204	0.044454
0	4213	0.701524	0.044524
0	4220	0.701844	0.044594
0	4226	0.702164	0.044664
0	4232	0.702484	0.044734
0	4240	0.702804	0.044804
0	4246	0.703124	0.044874
0	4252	0.703444	0.044944
0	4259	0.703764	0.045014
0	4266	0.704084	0.045084
0	4272	0.704404	0.045154
0	4278	0.704724	0.045224
0	4286	0.705044	0.045294
0	4292	0.705364	0.045364
0	4298	0.705684	0.045434
0	4305	0.706004	0.045504
0	4312	0.706324	0.045574
0	4318	0.706644	0.045644
0	4324	0.706964	0.045714
0	4332	0.707284	0.045784
0	4338	0.707604	0.045854
0	4344	0.707924	0.045924
0	4350	0.708244	0.045994
0	4358	0.708564	0.046064
0	4364	0.708884	0.046134
0	4370	0.709204	0.046204
0	4377	0.709524	0.046274
0	4384	0.709844	0.046344
0	4390	0.710164	0.046414
0	4396	0.710484	0.046484
0	4404	0.710804	0.046554
0	4410	0.711124	0.046624
0	4416	0.711444	0.046694
0	4423	0.711764	0.046764
0	4430	0.712084	0.046834
0	4436	0.712404	0.046904
0	4442	0.712724	0.046974
0	4450	0.713044	0.047044
0	4456	0.713364	0.047114
0	4462	0.713684	0.047184
0	4469	0.714004	0.047254
0	4476	0.714324	0.047324
0	4482	0.714644	0.047394
0	4488	0.714964	0.047464
0	4496	0.715284	0.047534
0	4502	0.715604	0.047604
0	4508	0.715924	0.047674
0	4514	0.716244	0.047744
0	4522	0.716564	0.047814
0	4528	0.716884	0.047884
0	4534	0.717204	0.047954
0	4541	0.717524	0.048024
0	4548	0.717844	0.048094
0	4554	0.718164	0.048164
0	4560	0.718484	0.048234
0	4568	0.718804	0.048304
0	4574	0.719124	0.048374
0	4580	0.719444	0.048444
0	4587	0.719764	0.048514
0	4594	0.720084	0.048584
0	4600	0.720404	0.048654
0	4606	0.720724	0.048724
0	4614	0.721044	0.048794
0	4620	0.721364	0.048864
0	4626	0.721684	0.048934
0	4633	0.722004	0.049004
0	4640	0.722324	0.049074
0	4646	0.722644	0.049144
0	4652	0.722964	0.049214
0	4660	0.723284	0.049284
0	4666	0.723604	0.049354
0	4672	0.723924	0.049424
0	4678	0.724244	0.049494
0	4686	0.724564	0.049564
0	4692	0.724884	0.049634
0	4698	0.725204	0.049704
0	4705	0.725524	0.049774
0	4712	0.725844	0.049844
0	4718	0.726164	0.049914
0	4724	0.726484	0.049984
0	4732	0.726804	0.050054
0	4738	0.727124	0.050124
0	4744	0.727444	0.050194
0	4751	0.727764	0.050264
0	4758	0.728084	0.050334
0	4764	0.728404	0.050404
0	4770	0.728724	0.050474
0	4778	0.729044	0.050544
0	4784	0.729364	0.050614
0	4790	0.729684	0.050684
0	4797	0.730004	0.050754
0	4804	0.730324	0.050824
0	4810	0.730644	0.050894
0	4816	0.730964	0.050964
0	4824	0.731284	0.051034
0	4830	0.731604	0.051104
0	4836	0.731924	0.051174
0	4842	0.732244	0.051244
0	4850	0.732564	0.051314
0	4856	0.732884	0.051384
0	4862	0.733204	0.051454
0	4869	0.733524	0.051524
0	4876	0.733844	0.051594
0	4882	0.734164	0.051664
0	4888	0.734484	0.051734
0	4896	0.734804	0.051804
0	4902	0.735124	0.051874
0	4908	0.735444	0.051944
0	4915	0.735764	0.052014
0	4922	0.736084	0.052084
0	4928	0.736404	0.052154
0	4934	0.736724	0.052224
0	4942	0.737044	0.052294
0	4948	0.737364	0.052364
0	4954	0.737684	0.052434
0	4961	0.738004	0.052504
0	4968	0.738324	0.052574
0	4974	0.738644	0.052644
0	4980	0.738964	0.052714
0	4988	0.739284	0.052784
0	4994	0.739604	0.052854
0	5000	0.739924	0.052924
0	5006	0.740244	0.052994
0	5014	0.740564	0.053064
0	5020	0.740884	0.053134
0	5026	0.741204	0.053204
0	5033	0.741524	0.053274
0	5040	0.741844	0.053344
0	5046	0.742164	0.053414
0	5052	0.742484	0.053484
0	5060	0.742804	0.053554
0	5066	0.743124	0.053624
0	5072	0.743444	0.053694
0	5079	0.743764	0.053764
0	5086	0.744084	0.053834
0	5092	0.744404	0.053904
0	5098	0.744724	0.053974
0	5106	0.745044	0.054044
0	5112	0.745364	0.054114
0	5118	0.745684	0.054184
0	5125	0.746004	0.054254
0	5132	0.746324	0.054324
0	5138	0.746644	0.054394
0	5144	0.746964	0.054464
0	5152	0.747284	0.054534
0	5158	0.747604	0.054604
0	5164	0.747924	0.054674
0	5170	0.748244	0.054744
0	5178	0.748564	0.054814
0	5184	0.748884	0.054884
0	5190	0.749204	0.054954
0	5197	0.749524	0.055024
0	5204	0.749844	0.055094
0	5210	0.750164	0.055164
0	5216	0.750484	0.055234
0	5224	0.750804	0.055304
0	5230	0.751124	0.055374
0	5236	0.751444	0.055444
0	5243	0.751764	0.055514
0	5250	0.752084	0.055584
0	5256	0.752404	0.055654
0	5262	0.752724	0.055724
0	5270	0.753044	0.055794
0	5276	0.753364	0.055864
0	5282	0.753684	0.055934
0	5289	0.754004	0.056004
0	5296	0.754324	0.056074
0	5302	0.754644	0.056144
0	5308	0.754964	0.056214
0	5316	0.755284	0.056284
0	5322	0.755604	0.056354
0	5328	0.755924	0.056424
0	5334	0.756244	0.056494
0	5342	0.756564	0.056564
0	5348	0.756884	0.056634
0	5354	0.757204	0.056704
0	5361	0.757524	0.056774
0	5368	0.757844	0.056844
0	5374	0.758164	0.056914
0	5380	0.758484	0.056984
0	5388	0.758804	0.057054
0	5394	0.759124	0.057124
0	5400	0.759444	0.057194
0	5407	0.759764	0.057264
0	5414	0.760084	0.057334
0	5420	0.760404	0.057404
0	5426	0.760724	0.057474
0	5434	0.761044	0.057544
0	5440	0.761364	0.057614
0	5446	0.761684	0.057684
0	5453	0.762004	0.057754
0	5460	0.762324	0.057824
0	5466	0.762644	0.057894
0	5472	0.762964	0.057964
0	5480	0.763284	0.058034
0	5486	0.763604	0.058104
0	5492	0.763924	0.058174
0	5498	0.764244	0.058244
0	5506	0.764564	0.058314
0	5512	0.764884	0.058384
0	5518	0.765204	0.058454
0	5525	0.765524	0.058524
0	5532	0.765844	0.058594
0	5538	0.766164	0.058664
0	5544	0.766484	0.058734
0	5552	0.766804	0.058804
0	5558	0.767124	0.058874
0	5564	0.767444	0.058944
0	5571	0.767764	0.059014
0	5578	0.768084	0.059084
0	5584	0.768404	0.059154
0	5590	0.768724	0.059224
0	5598	0.769044	0.059294
0	5604	0.769364	0.059364
0	5610	0.769684	0.059434
0	5617	0.770004	0.059504
0	5624	0.770324	0.059574
0	5630	0.770644	0.059644
0	5636	0.770964	0.059714
0	5644	0.771284	0.059784
0	5650	0.771604	0.059854
0	5656	0.771924	0.059924
0	5662	0.772244	0.059994
0	5670	0.772564	0.060064
0	5676	0.772884	0.060134
0	5682	0.773204	0.060204
0	5689	0.773524	0.060274
0	5696	0.773844	0.060344
0	5702	0.774164	0.060414
0	5708	0.774484	0.060484
0	5716	0.774804	0.060554
0	5722	0.775124	0.060624
0	5728	0.775444	0.060694
0	5735	0.775764	0.060764
0	5742	0.776084	0.060834
0	5748	0.776404	0.060904
0	5754	0.776724	0.060974
0	5762	0.777044	0.061044
0	5768	0.777364	0.061114
0	5774	0.777684	0.061184
0	5781	0.778004	0.061254
0	5788	0.778324	0.061324
0	5794	0.778644	0.061394
0	5800	0.778964	0.061464
0	5808	0.779284	0.061534
0	5814	0.779604	0.061604
0	5820	0.779924	0.061674
0	5826	0.780244	0.061744
0	5834	0.780564	0.061814
0	5840	0.780884	0.061884
0	5846	0.781204	0.061954
0	5853	0.781524	0.062024
0	5860	0.781844	0.062094
0	5866	0.782164	0.062164
0	5872	0.782484	0.062234
0	5880	0.782804	0.062304
0	5886	0.783124	0.062374
0	5892	0.783444	0.062444
0	5899	0.783764	0.062514
0	5906	0.784084	0.062584
0	5912	0.784404	0.062654
0	5918	0.784724	0.062724
0	5926	0.785044	0.062794
0	5932	0.785364	0.062864
0	5938	0.785684	0.062934
0	5945	0.786004	0.063004
0	5952	0.786324	0.063074
0	5958	0.786644	0.063144
0	5964	0.786964	0.063214
0	5972	0.787284	0.063284
0	5978	0.787604	0.063354
0	5984	0.787924	0.063424
0	5990	0.788244	0.063494
0	5998	0.788564	0.063564
0	6004	0.788884	0.063634
0	6010	0.789204	0.063704
0	6017	0.789524	0.063774
0	6024	0.789844	0.063844
0	6030	0.790164	0.063914
0	6036	0.790484	0.063984
0	6044	0.790804	0.064054
0	6050	0.791124	0.064124
0	6056	0.791444	0.064194
0	6063	0.791764	0.064264
0	6070	0.792084	0.064334
0	6076	0.792404	0.064404
0	6082	0.792724	0.064474
0	6090	0.793044	0.064544
0	6096	0.793364	0.064614
0	6102	0.793684	0.064684
0	6109	0.794004	0.064754
0	6116	0.794324	0.064824
0	6122	0.794644	0.064894
0	6128	0.794964	0.064964
0	6136	0.795284	0.065034
0	6142	0.795604	0.065104
0	6148	0.795924	0.065174
0	6154	0.796244	0.065244
0	6162	0.796564	0.065314
0	6168	0.796884	0.065384
0	6174	0.797204	0.065454
0	6181	0.797524	0.065524
0	6188	0.797844	0.065594
0	6194	0.798164	0.065664
0	6200	0.798484	0.065734
0	6208	0.798804	0.065804
0	6214	0.799124	0.065874
0	6220	0.799444	0.065944
0	6227	0.799764	0.066014
0	6234	0.800084	0.066084
0	6240	0.800404	0.066154
0	6246	0.800724	0.066224
0	6254	0.801044	0.066294
0	6260	0.801364	0.066364
0	6266	0.801684	0.066434
0	6273	0.802004	0.066504
0	6280	0.802324	0.066574
0	6286	0.802644	0.066644
0	6292	0.802964	0.066714
0	6300	0.803284	0.066784
0	6306	0.803604	0.066854
0	6312	0.803924	0.066924
0	6318	0.804244	0.066994
0	6326	0.804564	0.067064
0	6332	0.804884	0.067134
0	6338	0.805204	0.067204
0	6345	0.805524	0.067274
0	6352	0.805844	0.067344
0	6358	0.806164	0.067414
0	6364	0.806484	0.067484
0	6372	0.806804	0.067554
0	6378	0.807124	0.067624
0	6384	0.807444	0.067694
0	6391	0.807764	0.067764
0	6398	0.808084	0.067834
0	6404	0.808404	0.067904
0	6410	0.808724	0.067974
0	6418	0.809044	0.068044
0	6424	0.809364	0.068114
0	6430	0.809684	0.068184
0	6437	0.810004	0.068254
0	6444	0.810324	0.068324
0	6450	0.810644	0.068394
0	6456	0.810964	0.068464
0	6464	0.811284	0.068534
0	6470	0.811604	0.068604
0	6476	0.811924	0.068674
0	6482	0.812244	0.068744
0	6490	0.812564	0.068814
0	6496	0.812884	0.068884
0	6502	0.813204	0.068954
0	6509	0.813524	0.069024
0	6516	0.813844	0.069094
0	6522	0.814164	0.069164
0	6528	0.814484	0.069234
0	6536	0.814804	0.069304
0	6542	0.815124	0.069374
0	6548	0.815444	0.069444
0	6555	0.815764	0.069514
0	6562	0.816084	0.069584
0	6568	0.816404	0.069654
0	6574	0.816724	0.069724
0	6582	0.817044	0.069794
0	6588	0.817364	0.069864
0	6594	0.817684	0.069934
0	6601	0.818004	0.070004
0	6608	0.818324	0.070074
0	6614	0.818644	0.070144
0	6620	0.818964	0.070214
0	6628	0.819284	0.070284
0	6634	0.819604	0.070354
0	6640	0.819924	0.070424
0	6646	0.820244	0.070494
0	6654	0.820564	0.070564
0	6660	0.820884	0.070634
0	6666	0.821204	0.070704
0	6673	0.821524	0.070774
0	6680	0.821844	0.070844
0	6686	0.822164	0.070914
0	6692	0.822484	0.070984
0	6700	0.822804	0.071054
0	6706	0.823124	0.071124
0	6712	0.823444	0.071194
0	6719	0.823764	0.071264
0	6726	0.824084	0.071334
0	6732	0.824404	0.071404
0	6738	0.824724	0.071474
0	6746	0.825044	0.071544
0	6752	0.825364	0.071614
0	6758	0.825684	0.071684
0	6765	0.826004	0.071754
0	6772	0.826324	0.071824
0	6778	0.826644	0.071894
0	6784	0.826964	0.071964
0	6792	0.827284	0.072034
0	6798	0.827604	0.072104
0	6804	0.827924	0.072174
0	6810	0.828244	0.072244
0	6818	0.828564	0.072314
0	6824	0.828884	0.072384
0	6830	0.829204	0.072454
0	6837	0.829524	0.072524
0	6844	0.829844	0.072594
0	6850	0.830164	0.072664
0	6856	0.830484	0.072734
0	6864	0.830804	0.072804
0	6870	0.831124	0.072874
0	6876	0.831444	0.072944
0	6883	0.831764	0.073014
0	6890	0.832084	0.073084
0	6896	0.832404	0.073154
0	6902	0.832724	0.073224
0	6910	0.833044	0.073294
0	6916	0.833364	0.073364
0	6922	0.833684	0.073434
0	6929	0.834004	0.073504
0	6936	0.834324	0.073574
0	6942	0.834644	0.073644
0	6948	0.834964	0.073714
0	6956	0.835284	0.073784
0	6962	0.835604	0.073854
0	6968	0.835924	0.073924
0	6974	0.836244	0.073994
0	6982	0.836564	0.074064
0	6988	0.836884	0.074134
0	6994	0.837204	0.074204
0	7001	0.837524	0.074274
0	7008	0.837844	0.074344
0	7014	0.838164	0.074414
0	7020	0.838484	0.074484
0	7028	0.838804	0.074554
0	7034	0.839124	0.074624
0	7040	0.839444	0.074694
0	7047	0.839764	0.074764
0	7054	0.840084	0.074834
0	7060	0.840404	0.074904
0	7066	0.840724	0.074974
0	7074	0.841044	0.075044
0	7080	0.841364	0.075114
0	7086	0.841684	0.075184
0	7093	0.842004	0.075254
0	7100	0.842324	0.075324
0	7106	0.842644	0.075394
0	7112	0.842964	0.075464
0	7120	0.843284	0.075534
0	7126	0.843604	0.075604
0	7132	0.843924	0.075674
0	7138	0.844244	0.075744
0	7146	0.844564	0.075814
0	7152	0.844884	0.075884
0	7158	0.845204	0.075954
0	7165	0.845524	0.076024
0	7172	0.845844	0.076094
0	7178	0.846164	0.076164
0	7184	0.846484	0.076234
0	7192	0.846804	0.076304
0	7198	0.847124	0.076374
0	7204	0.847444	0.076444
0	7211	0.847764	0.076514
0	7218	0.848084	0.076584
0	7224	0.848404	0.076654
0	7230	0.848724	0.076724
0	7238	0.849044	0.076794
0	7244	0.849364	0.076864
0	7250	0.849684	0.076934
0	7257	0.850004	0.077004
0	7264	0.850324	0.077074
0	7270	0.850644	0.077144
0	7276	0.850964	0.077214
0	7284	0.851284	0.077284
0	7290	0.851604	0.077354
0	7296	0.851924	0.077424
0	7302	0.852244	0.077494
0	7310	0.852564	0.077564
0	7316	0.852884	0.077634
0	7322	0.853204	0.077704
0	7329	0.853524	0.077774
0	7336	0.853844	0.077844
0	7342	0.854164	0.077914
0	7348	0.854484	0.077984
0	7356	0.854804	0.078054
0	7362	0.855124	0.078124
0	7368	0.855444	0.078194
0	7375	0.855764	0.078264
0	7382	0.856084	0.078334
0	7388	0.856404	0.078404
0	7394	0.856724	0.078474
0	7402	0.857044	0.078544
0	7408	0.857364	0.078614
0	7414	0.857684	0.078684
0	7421	0.858004	0.078754
0	7428	0.858324	0.078824
0	7434	0.858644	0.078894
0	7440	0.858964	0.078964
0	7448	0.859284	0.079034
0	7454	0.859604	0.079104
0	7460	0.859924	0.079174
0	7466	0.860244	0.079244
0	7474	0.860564	0.079314
0	7480	0.860884	0.079384
0	7486	0.861204	0.079454
0	7493	0.861524	0.079524
0	7500	0.861844	0.079594
0	7506	0.862164	0.079664
0	7512	0.862484	0.079734
0	7520	0.862804	0.079804
0	7526	0.863124	0.079874
0	7532	0.863444	0.079944
0	7539	0.863764	0.080014
0	7546	0.864084	0.080084
0	7552	0.864404	0.080154
0	7558	0.864724	0.080224
0	7566	0.865044	0.080294
0	7572	0.865364	0.080364
0	7578	0.865684	0.080434
0	7585	0.866004	0.080504
0	7592	0.866324	0.080574
0	7598	0.866644	0.080644
0	7604	0.866964	0.080714
0	7612	0.867284	0.080784
0	7618	0.867604	0.080854
0	7624	0.867924	0.080924
0	7630	0.868244	0.080994
0	7638	0.868564	0.081064
0	7644	0.868884	0.081134
0	7650	0.869204	0.081204
0	7657	0.869524	0.081274
0	7664	0.869844	0.081344
0	7670	0.870164	0.081414
0	7676	0.870484	0.081484
0	7684	0.870804	0.081554
0	7690	0.871124	0.081624
0	7696	0.871444	0.081694
0	7703	0.871764	0.081764
0	7710	0.872084	0.081834
0	7716	0.872404	0.081904
0	7722	0.872724	0.081974
0	7730	0.873044	0.082044
0	7736	0.873364	0.082114
0	7742	0.873684	0.082184
0	7749	0.874004	0.082254
0	7756	0.874324	0.082324
0	7762	0.874644	0.082394
0	7768	0.874964	0.082464
0	7776	0.875284	0.082534
0	7782	0.875604	0.082604
0	7788	0.875924	0.082674